# vtk DataFile Version 2.0
poutre, Created by Gmsh 4.10.3 
ASCII
DATASET UNSTRUCTURED_GRID
POINTS 46 double
0 0 0
10 0 0
10 2 0
0 2 0
0 0 2
10 0 2
10 2 2
0 2 2
1.999999999996827 0 0
3.999999999991027 0 0
5.999999999993932 0 0
7.999999999996978 0 0
7.999999999999996 2 0
5.999999999999991 2 0
3.999999999999988 2 0
1.999999999999982 2 0
1.999999999996827 0 2
3.999999999991027 0 2
5.999999999993932 0 2
7.999999999996978 0 2
7.999999999999996 2 2
5.999999999999991 2 2
3.999999999999988 2 2
1.999999999999982 2 2
0 1 1
10 1 1
4.99999999999248 0 1
0.9999999999984135 0 1
2.999999999994059 0 1
6.999999999995454 0 1
8.999999999998488 0 1
2.999999999999985 2 1
0.9999999999999911 2 1
8.999999999999998 2 1
4.999999999999989 2 1
6.999999999999993 2 0.9999999999999998
0.9999999999984135 1 0
8.999999999999243 1 0
2.999999999996453 0.9999999999992533 0
4.99999999999248 0.9999999999955196 0
6.999999999997724 1 0
0.9999999999984135 1 2
8.999999999999243 1 2
2.999999999996453 0.9999999999992533 2
4.99999999999248 0.9999999999955196 2
6.999999999997724 0.9999999999999999 2

CELLS 228 972
1 0
1 1
1 2
1 3
1 4
1 5
1 6
1 7
2 0 8
2 8 9
2 9 10
2 10 11
2 11 1
2 1 2
2 2 12
2 12 13
2 13 14
2 14 15
2 15 3
2 3 0
2 4 16
2 16 17
2 17 18
2 18 19
2 19 5
2 5 6
2 6 20
2 20 21
2 21 22
2 22 23
2 23 7
2 7 4
2 0 4
2 1 5
2 2 6
2 3 7
3 3 0 24
3 0 4 24
3 7 3 24
3 4 7 24
3 1 2 25
3 5 1 25
3 2 6 25
3 6 5 25
3 0 4 27
3 8 0 27
3 5 1 30
3 1 11 30
3 4 16 27
3 19 5 30
3 9 8 28
3 8 27 28
3 10 9 26
3 26 9 28
3 11 10 29
3 18 10 26
3 10 18 29
3 19 11 29
3 11 19 30
3 16 17 28
3 27 16 28
3 17 18 26
3 17 26 28
3 18 19 29
3 6 2 33
3 2 12 33
3 3 7 32
3 15 3 32
3 20 6 33
3 7 23 32
3 12 13 35
3 12 20 33
3 20 12 35
3 13 14 34
3 21 13 34
3 13 21 35
3 14 15 31
3 22 14 31
3 14 22 34
3 31 15 32
3 21 20 35
3 22 21 34
3 23 22 31
3 23 31 32
3 3 0 36
3 0 8 36
3 1 2 37
3 11 1 37
3 2 12 37
3 15 3 36
3 8 9 38
3 36 8 38
3 9 10 39
3 38 9 39
3 10 11 40
3 10 13 39
3 13 10 40
3 12 11 37
3 11 12 40
3 12 13 40
3 13 14 39
3 14 15 38
3 14 38 39
3 15 36 38
3 7 4 41
3 4 16 41
3 5 6 42
3 19 5 42
3 6 20 42
3 23 7 41
3 16 17 43
3 41 16 43
3 17 18 44
3 43 17 44
3 18 19 45
3 18 21 44
3 21 18 45
3 20 19 42
3 19 20 45
3 20 21 45
3 21 22 44
3 22 23 43
3 22 43 44
3 23 41 43
4 29 35 18 45
4 35 29 18 40
4 30 33 19 42
4 33 30 19 37
4 40 35 29 11
4 19 29 45 35
4 35 18 45 21
4 19 33 20 42
4 40 29 18 10
4 20 12 37 35
4 12 20 37 33
4 20 37 19 35
4 21 34 40 10
4 30 19 37 11
4 35 12 37 11
4 20 37 33 19
4 19 35 37 11
4 21 34 13 40
4 13 35 21 40
4 34 13 40 10
4 35 18 21 40
4 12 35 40 11
4 20 19 45 35
4 35 19 29 11
4 34 21 18 10
4 40 18 21 10
4 44 39 22 34
4 34 44 39 10
4 14 22 39 34
4 21 18 44 34
4 13 34 39 10
4 34 18 44 10
4 16 38 28 36
4 16 38 43 28
4 16 41 36 27
4 27 28 36 16
4 32 38 23 36
4 23 32 36 41
4 26 39 9 44
4 44 26 39 10
4 43 41 36 16
4 16 38 36 43
4 9 28 26 44
4 43 39 44 28
4 43 39 31 44
4 41 43 36 23
4 23 36 38 43
4 43 38 39 28
4 28 9 39 44
4 38 43 39 31
4 26 44 18 10
4 28 38 39 9
4 43 17 28 44
4 17 26 28 44
4 25 30 42 33
4 25 30 33 37
4 28 27 36 8
4 28 36 38 8
4 23 38 31 43
4 32 38 36 15
4 38 32 23 31
4 32 38 15 31
4 22 31 39 44
4 38 39 14 31
4 31 22 43 44
4 22 14 39 31
4 30 37 1 11
4 19 5 30 42
4 45 18 29 19
4 10 40 29 11
4 33 6 25 2
4 42 20 6 33
4 33 12 2 37
4 45 21 20 35
4 13 12 35 40
4 42 5 25 6
4 37 2 25 1
4 5 30 25 1
4 2 25 33 37
4 6 25 42 33
4 25 30 37 1
4 25 30 5 42
4 41 24 36 27
4 4 0 24 27
4 21 44 22 34
4 39 14 34 13
4 32 24 36 41
4 0 36 3 24
4 41 7 24 4
4 32 3 24 7
4 44 17 26 18
4 9 39 26 10
4 38 14 15 31
4 22 23 31 43
4 15 3 36 32
4 23 7 32 41
4 16 4 41 27
4 36 0 8 27
4 28 16 17 43
4 8 28 9 38
4 0 36 24 27
4 24 41 4 27
4 24 32 7 41
4 24 36 3 32

CELL_TYPES 228
1
1
1
1
1
1
1
1
3
3
3
3
3
3
3
3
3
3
3
3
3
3
3
3
3
3
3
3
3
3
3
3
3
3
3
3
5
5
5
5
5
5
5
5
5
5
5
5
5
5
5
5
5
5
5
5
5
5
5
5
5
5
5
5
5
5
5
5
5
5
5
5
5
5
5
5
5
5
5
5
5
5
5
5
5
5
5
5
5
5
5
5
5
5
5
5
5
5
5
5
5
5
5
5
5
5
5
5
5
5
5
5
5
5
5
5
5
5
5
5
5
5
5
5
10
10
10
10
10
10
10
10
10
10
10
10
10
10
10
10
10
10
10
10
10
10
10
10
10
10
10
10
10
10
10
10
10
10
10
10
10
10
10
10
10
10
10
10
10
10
10
10
10
10
10
10
10
10
10
10
10
10
10
10
10
10
10
10
10
10
10
10
10
10
10
10
10
10
10
10
10
10
10
10
10
10
10
10
10
10
10
10
10
10
10
10
10
10
10
10
10
10
10
10
10
10
10
10

CELL_DATA 228
SCALARS CellEntityIds int 1
LOOKUP_TABLE default
101
102
103
104
201
202
203
204
1
1
1
1
1
2
3
3
3
3
3
4
5
5
5
5
5
6
7
7
7
7
7
8
9
10
11
12
1
1
1
1
2
2
2
2
3
3
3
3
3
3
3
3
3
3
3
3
3
3
3
3
3
3
3
3
4
4
4
4
4
4
4
4
4
4
4
4
4
4
4
4
4
4
4
4
5
5
5
5
5
5
5
5
5
5
5
5
5
5
5
5
5
5
5
5
6
6
6
6
6
6
6
6
6
6
6
6
6
6
6
6
6
6
6
6
1
1
1
1
1
1
1
1
1
1
1
1
1
1
1
1
1
1
1
1
1
1
1
1
1
1
1
1
1
1
1
1
1
1
1
1
1
1
1
1
1
1
1
1
1
1
1
1
1
1
1
1
1
1
1
1
1
1
1
1
1
1
1
1
1
1
1
1
1
1
1
1
1
1
1
1
1
1
1
1
1
1
1
1
1
1
1
1
1
1
1
1
1
1
1
1
1
1
1
1
1
1
1
1
